<?xml version="1.0"?>
<VTKFile type="UnstructuredGrid"  version="0.1"  >
<UnstructuredGrid>
<Piece  NumberOfPoints="7928" NumberOfCells="38634">
<Points>
<DataArray  type="Float64"  NumberOfComponents="3"  format="ascii">0.3 0.3 0.4  0.3 0.3 0.2  0.5 0.5 0.6  0.5 0.5 0.4  0.3 0.3 0.7999999999999999  0.3 0.3 0.6  0.3 0.7 0.4  0.3 0.7 0.2  0.3 0.7 0.7999999999999999  0.3 0.7 0.6  0.7 0.3 0.4  0.7 0.3 0.2  0.7 0.3 0.7999999999999999  0.7 0.3 0.6  0.7 0.7 0.4  0.7 0.7 0.2  0.7 0.7 0.7999999999999999  0.7 0.7 0.6  0 0 1  0 0 0  0 1 1  0 1 0  1 0 0  1 0 1  1 1 1  1 1 0  0.3433883739117558 0.3 0.2099031132097581  0.378183148246803 0.3 0.2376510198141266  0.3974927912181824 0.3 0.2777479066043685  0.3974927912181824 0.3 0.3222520933956314  0.378183148246803 0.3 0.3623489801858734  0.3433883739117558 0.3 0.3900968867902419  0.5433883739117558 0.5 0.4099031132097581  0.5781831482468029 0.5 0.4376510198141266  0.5974927912181823 0.5 0.4777479066043686  0.5974927912181823 0.5 0.5222520933956314  0.5781831482468029 0.5 0.5623489801858733  0.5433883739117559 0.5 0.5900968867902419  0.3433883739117558 0.3 0.609903113209758  0.378183148246803 0.3 0.6376510198141265  0.3974927912181824 0.3 0.6777479066043685  0.3974927912181824 0.3 0.7222520933956313  0.378183148246803 0.3 0.7623489801858733  0.3433883739117558 0.3 0.7900968867902418  0.3433883739117558 0.7 0.2099031132097581  0.378183148246803 0.7 0.2376510198141266  0.3974927912181824 0.7 0.2777479066043685  0.3974927912181824 0.7 0.3222520933956314  0.378183148246803 0.7 0.3623489801858734  0.3433883739117558 0.7 0.3900968867902419  0.3433883739117558 0.7 0.609903113209758  0.378183148246803 0.7 0.6376510198141265  0.3974927912181824 0.7 0.6777479066043685  0.3974927912181824 0.7 0.7222520933956313  0.378183148246803 0.7 0.7623489801858733  0.3433883739117558 0.7 0.7900968867902418  0.7433883739117557 0.3 0.2099031132097581  0.7781831482468029 0.3 0.2376510198141266  0.7974927912181823 0.3 0.2777479066043685  0.7974927912181823 0.3 0.3222520933956314  0.7781831482468029 0.3 0.3623489801858734  0.7433883739117558 0.3 0.3900968867902419  0.7433883739117557 0.3 0.609903113209758  0.7781831482468029 0.3 0.6376510198141265  0.7974927912181823 0.3 0.6777479066043685  0.7974927912181823 0.3 0.7222520933956313  0.7781831482468029 0.3 0.7623489801858733  0.7433883739117558 0.3 0.7900968867902418  0.7433883739117557 0.7 0.2099031132097581  0.7781831482468029 0.7 0.2376510198141266  0.7974927912181823 0.7 0.2777479066043685  0.7974927912181823 0.7 0.3222520933956314  0.7781831482468029 0.7 0.3623489801858734  0.7433883739117558 0.7 0.3900968867902419  0.7433883739117557 0.7 0.609903113209758  0.7781831482468029 0.7 0.6376510198141265  0.7974927912181823 0.7 0.6777479066043685  0.7974927912181823 0.7 0.7222520933956313  0.7781831482468029 0.7 0.7623489801858733  0.7433883739117558 0.7 0.7900968867902418  0 0 0.05  0 0 0.1  0 0 0.15  0 0 0.2  0 0 0.25  0 0 0.3  0 0 0.35  0 0 0.4  0 0 0.45  0 0 0.5  0 0 0.55  0 0 0.6  0 0 0.65  0 0 0.7  0 0 0.75  0 0 0.8  0 0 0.85  0 0 0.9  0 0 0.95  0 0.05 1  0 0.1 1  0 0.15 1  0 0.2 1  0 0.25 1  0 0.3 1  0 0.35 1  0 0.4 1  0 0.45 1  0 0.5 1  0 0.55 1  0 0.6 1  0 0.65 1  0 0.7 1  0 0.75 1  0 0.8 1  0 0.85 1  0 0.9 1  0 0.95 1  0 1 0.05  0 1 0.1  0 1 0.15  0 1 0.2  0 1 0.25  0 1 0.3  0 1 0.35  0 1 0.4  0 1 0.45  0 1 0.5  0 1 0.55  0 1 0.6  0 1 0.65  0 1 0.7  0 1 0.75  0 1 0.8  0 1 0.85  0 1 0.9  0 1 0.95  0 0.05 0  0 0.1 0  0 0.15 0  0 0.2 0  0 0.25 0  0 0.3 0  0 0.35 0  0 0.4 0  0 0.45 0  0 0.5 0  0 0.55 0  0 0.6 0  0 0.65 0  0 0.7 0  0 0.75 0  0 0.8 0  0 0.85 0  0 0.9 0  0 0.95 0  0.05 0 0  0.1 0 0  0.15 0 0  0.2 0 0  0.25 0 0  0.3 0 0  0.35 0 0  0.4 0 0  0.45 0 0  0.5 0 0  0.55 0 0  0.6 0 0  0.65 0 0  0.7 0 0  0.75 0 0  0.8 0 0  0.85 0 0  0.9 0 0  0.95 0 0  1 0 0.05  1 0 0.1  1 0 0.15  1 0 0.2  1 0 0.25  1 0 0.3  1 0 0.35  1 0 0.4  1 0 0.45  1 0 0.5  1 0 0.55  1 0 0.6  1 0 0.65  1 0 0.7  1 0 0.75  1 0 0.8  1 0 0.85  1 0 0.9  1 0 0.95  0.05 0 1  0.1 0 1  0.15 0 1  0.2 0 1  0.25 0 1  0.3 0 1  0.35 0 1  0.4 0 1  0.45 0 1  0.5 0 1  0.55 0 1  0.6 0 1  0.65 0 1  0.7 0 1  0.75 0 1  0.8 0 1  0.85 0 1  0.9 0 1  0.95 0 1  0.05 1 1  0.1 1 1  0.15 1 1  0.2 1 1  0.25 1 1  0.3 1 1  0.35 1 1  0.4 1 1  0.45 1 1  0.5 1 1  0.55 1 1  0.6 1 1  0.65 1 1  0.7 1 1  0.75 1 1  0.8 1 1  0.85 1 1  0.9 1 1  0.95 1 1  1 0.05 1  1 0.1 1  1 0.15 1  1 0.2 1  1 0.25 1  1 0.3 1  1 0.35 1  1 0.4 1  1 0.45 1  1 0.5 1  1 0.55 1  1 0.6 1  1 0.65 1  1 0.7 1  1 0.75 1  1 0.8 1  1 0.85 1  1 0.9 1  1 0.95 1  0.05 1 0  0.1 1 0  0.15 1 0  0.2 1 0  0.25 1 0  0.3 1 0  0.35 1 0  0.4 1 0  0.45 1 0  0.5 1 0  0.55 1 0  0.6 1 0  0.65 1 0  0.7 1 0  0.75 1 0  0.8 1 0  0.85 1 0  0.9 1 0  0.95 1 0  1 1 0.05  1 1 0.1  1 1 0.15  1 1 0.2  1 1 0.25  1 1 0.3  1 1 0.35  1 1 0.4  1 1 0.45  1 1 0.5  1 1 0.55  1 1 0.6  1 1 0.65  1 1 0.7  1 1 0.75  1 1 0.8  1 1 0.85  1 1 0.9  1 1 0.95  1 0.05 0  1 0.1 0  1 0.15 0  1 0.2 0  1 0.25 0  1 0.3 0  1 0.35 0  1 0.4 0  1 0.45 0  1 0.5 0  1 0.55 0  1 0.6 0  1 0.65 0  1 0.7 0  1 0.75 0  1 0.8 0  1 0.85 0  1 0.9 0  1 0.95 0  0.3483162007428355 0.2605926393170457 0.221816851753197  0.3526041990027045 0.3334692930535184 0.378183148246803  0.3921030518367901 0.3389359539822785 0.2989903813395892  0.3924316478989507 0.261874168185053 0.3016767274980692  0.3642042810463353 0.3413259338969202 0.2354246371835933  0.3597075035698957 0.2607888984539422 0.3699821658209835  0.3783701495804413 0.2595395105788965 0.2528717871064048  0.3481427535083459 0.227364184613019 0.2509458094786688  0.3804770946961658 0.3398304327431857 0.3440110651626943  0.3664150551252935 0.3735529644178387 0.3133791583461881  0.3690947557450266 0.3656951219378669 0.2698327050913759  0.3477613481581672 0.3705957039221607 0.3522981855311345  0.3150683313737983 0.3577325303536174 0.380248989579795  0.3205640264727401 0.2617943485079187 0.3900968867902441  0.3205640264727408 0.3382056514920859 0.209903113209758  0.3124982087945395 0.2345602725823241 0.2254249582472234  0.309275078226674 0.2083058604751253 0.2611907523819142  0.3304595242795427 0.2287843179994851 0.3632498538960012  0.3428823846948763 0.2098685475450743 0.2938826181052586  0.3037069101190939 0.2002192053864995 0.3054819561898452  0.2883250494570871 0.2352518277092625 0.375308496963022  0.2780681217873708 0.2742125958065828 0.3940957092700391  0.3313820666607876 0.3723595135429323 0.2385242593218425  0.3067163382330935 0.38552641124291 0.3513821348393323  0.2727866716368013 0.3647314544815508 0.3711988311708811  0.2474866050055043 0.2522173972370514 0.3704213477530098  0.2411105983252114 0.2950503966463959 0.3806693237670145  0.3330221259070523 0.3922459556272829 0.2799944290011971  0.2636006449493008 0.3874660231919552 0.332012212339629  0.2159675581310943 0.2747781672368994 0.3479834124007367  0.2724538931429977 0.2237072889557581 0.2415138115574076  0.3028534906491446 0.3908408253343217 0.2582890656578578  0.2764686510278809 0.2573537546637433 0.2126640201619507  0.2390816929315478 0.2526942297870649 0.2363515595754715  0.2446818531498832 0.2911267319837644 0.2171678338821146  0.2160178187230492 0.2892995693392656 0.2467788198962086  0.2359687028894342 0.2287595334648804 0.2712808614649228  0.2315426730015754 0.3286576603047351 0.232975132330685  0.2073278012933253 0.3262176885490415 0.2730835293172367  0.2160124034772317 0.3200692256995025 0.3504312384356274  0.2318891534847979 0.3625053286087232 0.2618686941936403  0.2169025938706078 0.3553843693378612 0.3052338062262793  0.2015334504462694 0.28752923902134 0.2878008713591568  0.2338376373890994 0.2339239481355347 0.3354471034606242  0.2814889676363859 0.3277065040327249 0.3942851595698805  0.3673559130753514 0.2322149562930557 0.3294680984020579  0.2693226189759427 0.3293599951540154 0.2094633279932325  0.2597762936367743 0.3606254739101934 0.2313952963743049  0.2921562249810537 0.39968609988841 0.2989245082566106  0.2493382361667557 0.3859647177395672 0.2934081118591769  0.2364141345767103 0.3600133189342183 0.3485308074203498  0.2996025149134512 0.2113037007561027 0.3461823397636261  0.2024471475201192 0.3181917404377755 0.3123491519094725  0.3321204108157707 0.3926881063029219 0.3194214870441059  0.3323119520672269 0.2101818846421274 0.3298101309484731  0.2653160330387176 0.2086284952542203 0.3211724008161717  0.2440087603117383 0.3345256158510868 0.3753190741331491  0.3719697541729616 0.2333187166183217 0.2806619305292439  0.3850601020366556 0.3329670924877683 0.2590372137859659  0.2680302971426902 0.2066604944652339 0.2837004660882377  0.2144216490500288 0.2586534009031525 0.2689065184997221  0.3859509171038025 0.2679865464057697 0.3398444304512604  0.2125047505114488 0.2519041880504662 0.3056012668077197  0.309615242581145 0.2734734365202437 0.2040631012588994  0.2697176276255846 0.2953318392846507 0.2048097368481791  0.2942855905331388 0.3673845148747952 0.2263340466732864  0.2665831961367174 0.3853176921131756 0.2599474266489119  0.3133027252104704 0.3299656159822834 0.3944727440099897  0.263186118573984 0.2237969317922791 0.3532712918003748  0.2377575131915096 0.3755943974790144 0.3202820094093187  0.2383841370884664 0.2213482994174843 0.304170783277203  0.2029129069372292 0.2892900291502777 0.3214334524754875  0.5526041990027045 0.5334692930535183 0.5781831482468029  0.5483162007428356 0.5394073606829543 0.421816851753197  0.5919477354850662 0.5393076364926207 0.5007236383988505  0.5828136570207937 0.4623425255663867 0.4584811749910463  0.5827807295515772 0.4610068730362613 0.5403346856253818  0.5240117601869263 0.4586489470641963 0.4121733195786957  0.5205640264726998 0.4617943485081495 0.5900968867903512  0.5797015402903295 0.5411990039124575 0.4558377247872089  0.5646887919839202 0.5745945140831166 0.484156431577298  0.5702278729047325 0.5655877095888607 0.5276820920120571  0.55909745021174 0.4665881100136736 0.5734243623466526  0.5496059115738635 0.4320563732674841 0.5540640095013178  0.5686663628121268 0.4285270555359788 0.5132871677868652  0.5303668163667402 0.4073479157401858 0.
[...]
<PointData  Scalars="c"> 
<DataArray  type="Float64"  Name="c"  format="ascii">0.0000000000000000e+00  0.0000000000000000e+00  0.0000000000000000e+00  0.0000000000000000e+00  0.0000000000000000e+00  0.0000000000000000e+00  0.0000000000000000e+00  0.0000000000000000e+00  0.0000000000000000e+00  0.0000000000000000e+00  0.0000000000000000e+00  0.0000000000000000e+00  0.0000000000000000e+00  0.0000000000000000e+00  0.0000000000000000e+00  0.0000000000000000e+00  0.0000000000000000e+00  0.0000000000000000e+00  2.0137973413717355e-02  2.4511226951306316e-02  1.9405007198635763e-02  2.2007138456066565e-02  1.9647456418812384e-01  1.7593589180852473e-01  1.7644161061439936e-01  1.8697073943892661e-01  0.0000000000000000e+00  0.0000000000000000e+00  0.0000000000000000e+00  0.0000000000000000e+00  0.0000000000000000e+00  0.0000000000000000e+00  0.0000000000000000e+00  0.0000000000000000e+00  0.0000000000000000e+00  0.0000000000000000e+00  0.0000000000000000e+00  0.0000000000000000e+00  0.0000000000000000e+00  0.0000000000000000e+00  0.0000000000000000e+00  0.0000000000000000e+00  0.0000000000000000e+00  0.0000000000000000e+00  0.0000000000000000e+00  0.0000000000000000e+00  0.0000000000000000e+00  0.0000000000000000e+00  0.0000000000000000e+00  0.0000000000000000e+00  0.0000000000000000e+00  0.0000000000000000e+00  0.0000000000000000e+00  0.0000000000000000e+00  0.0000000000000000e+00  0.0000000000000000e+00  0.0000000000000000e+00  0.0000000000000000e+00  0.0000000000000000e+00  0.0000000000000000e+00  0.0000000000000000e+00  0.0000000000000000e+00  0.0000000000000000e+00  0.0000000000000000e+00  0.0000000000000000e+00  0.0000000000000000e+00  0.0000000000000000e+00  0.0000000000000000e+00  0.0000000000000000e+00  0.0000000000000000e+00  0.0000000000000000e+00  0.0000000000000000e+00  0.0000000000000000e+00  0.0000000000000000e+00  0.0000000000000000e+00  0.0000000000000000e+00  0.0000000000000000e+00  0.0000000000000000e+00  0.0000000000000000e+00  0.0000000000000000e+00  1.3786277601695807e-01  3.8338884284123004e-01  8.5306740900803213e-01  1.3801081475930428e+00  1.7795496141521974e+00  2.1124180007436872e+00  2.6959936857258482e+00  3.0768765377012435e+00  3.5697472988754377e+00  3.2710224823745344e+00  3.3201199151649776e+00  2.8856882562488888e+00  2.6911890289584441e+00  2.4148517296763243e+00  1.8459089875052883e+00  1.1633897047472916e+00  7.9188803236745808e-01  4.0293099362864154e-01  1.5018861552202231e-01  1.4440902685889834e-01  4.0497784944841692e-01  7.0985206739115392e-01  1.1217786568757064e+00  1.7522937949191231e+00  2.1918294262603721e+00  2.5953046767040937e+00  3.2201260211098561e+00  3.4144942763640507e+00  3.4575588039513714e+00  3.6113233696576996e+00  3.2346513257865710e+00  2.8216732418899526e+00  2.2468473473816064e+00  1.8491133798447685e+00  1.2691460065912610e+00  8.4001964270287921e-01  3.8132325854981824e-01  1.3399581811700195e-01  1.5841636766841805e-01  4.3325632786331258e-01  7.6694136050033623e-01  1.2607453161534405e+00  1.6211339715968924e+00  2.2192191307500067e+00  2.7036653985291990e+00  3.1513939213933315e+00  3.2641892452183279e+00  3.5257546905690962e+00  2.8853041141658640e+00  2.8268645388680467e+00  2.5567484163458127e+00  2.0896693366530865e+00  1.7889977940491519e+00  1.1366820792449446e+00  8.3087677721058595e-01  4.0476462840868133e-01  1.6285533573321315e-01  1.4959883903037666e-01  4.3178614467204113e-01  7.9287943280494622e-01  1.2565451826380614e+00  1.6356446758545700e+00  2.1598405982138953e+00  2.6286149574497975e+00  3.1798321553281319e+00  3.3594248249111254e+00  3.3852025452970245e+00  3.4116713704512360e+00  3.2373308213406622e+00  2.7465509284608038e+00  2.3077740668650155e+00  1.7833417928748947e+00  1.2153550458282927e+00  8.5858254135279155e-01  3.9938022991822042e-01  1.4079448297347999e-01  1.0031332893577542e-01  1.2746296328575715e-01  1.4671359169685208e-01  1.6494540994869844e-01  1.6695559721761999e-01  1.6220462055654455e-01  1.6902819372502179e-01  1.7281745634540849e-01  1.7733399694751789e-01  1.7742130907686063e-01  1.7968849259844724e-01  1.8064917173564354e-01  1.7299142103010501e-01  1.7151394171449313e-01  1.7422255909723486e-01  1.7583273968178023e-01  1.7726367504478940e-01  1.8533864479145867e-01  1.9397983234418475e-01  2.2149709721546740e-01  2.7585682256723787e-01  4.3357612938973017e-01  6.3534498743540790e-01  8.7246187126718389e-01  1.1292744650851960e+00  1.3248737348297630e+00  1.4509801976194712e+00  1.4926738569371973e+00  1.4844317437839842e+00  1.4996035783583281e+00  1.4517069339949749e+00  1.3438072042828990e+00  1.1115488117985766e+00  8.7837000814315436e-01  6.0824698878858752e-01  3.9619391659789371e-01  2.5151193058943039e-01  1.9714050206594388e-01  9.4812214592915764e-02  1.1695450279119454e-01  1.3070594579658781e-01  1.3964073839787888e-01  1.5917508396630123e-01  1.6774268105917031e-01  1.7799939323152447e-01  1.7728795309916104e-01  1.8248285851850365e-01  1.8343650716852769e-01  1.8066022912098573e-01  1.8240779839461083e-01  1.7904536580315777e-01  1.7822459729267526e-01  1.7192744059681325e-01  1.7034923044968886e-01  1.6396454649174985e-01  1.6827347753484875e-01  1.7203142490376588e-01  1.0231241771713211e-01  1.3155275410214337e-01  1.4732931916839592e-01  1.5862724211412640e-01  1.7352991638521051e-01  1.8848144277243256e-01  1.9053428583804186e-01  1.9159645927565885e-01  1.8477747772454112e-01  1.7741850177442647e-01  1.7621482601388846e-01  1.7304384976370676e-01  1.5691245435817688e-01  1.4496173081918895e-01  1.4825470373125776e-01  1.5244451289163657e-01  1.6024351614680488e-01  1.6014252256198072e-01  1.6753545695992700e-01  1.9159714460274316e-01  2.7427825226396885e-01  3.9461498895492064e-01  6.2983823213469481e-01  8.6674455492172509e-01  1.1044324204705509e+00  1.2865269749096022e+00  1.4550586272695429e+00  1.5227989170560174e+00  1.5319959918490302e+00  1.5168939950120912e+00  1.4588795445292193e+00  1.2999393613960906e+00  1.1144408188790631e+00  8.9051710981098420e-01  6.3978487923700744e-01  4.2149716612056815e-01  2.8636807779576440e-01  2.0021999708760216e-01  1.0356621107872033e-01  1.3705951631237950e-01  1.4961072182153992e-01  1.5657915140270695e-01  1.6680298305282368e-01  1.6298019063743766e-01  1.7326941554832101e-01  1.7925850762981987e-01  1.8586918171784886e-01  1.8640746653201112e-01  1.8431832433207901e-01  1.8972714340282620e-01  1.7252675500735926e-01  1.5867015571816112e-01  1.5643226391463691e-01  1.5229943683049207e-01  1.6307432612046208e-01  1.7098010486109871e-01  1.8212078659411304e-01  2.0629911963595304e-01  2.5512089988609482e-01  3.9680962675792419e-01  6.0102818192195706e-01  8.5072366585557768e-01  1.1248415873647342e+00  1.3092139313051663e+00  1.4122582672001236e+00  1.4641843095690652e+00  1.4794394858767925e+00  1.4808466402414215e+00  1.4229550289539383e+00  1.2647080958973775e+00  1.0699186042481879e+00  8.3100066932982730e-01  6.2819396348409262e-01  4.3188094016740908e-01  2.8256317538667164e-01  1.9414238138383738e-01  2.1415770537743486e-01  2.7683188874036974e-01  4.0150623694615911e-01  5.9825987677403636e-01  8.5315596793463844e-01  1.0835851832656855e+00  1.2513774602068042e+00  1.4248801504363409e+00  1.4878245389636717e+00  1.5244090892395081e+00  1.4950560376640842e+00  1.4270465780147250e+00  1.3226450778796262e+00  1.1548727370873659e+00  8.9234100695721852e-01  6.0448822920035383e-01  4.0828248139787027e-01  2.7899553809569050e-01  2.0249656143600619e-01  0.0000000000000000e+00  0.0000000000000000e+00  0.0000000000000000e+00  0.0000000000000000e+00  0.0000000000000000e+00  0.0000000000000000e+00  0.0000000000000000e+00  0.0000000000000000e+00  0.0000000000000000e+00  0.0000000000000000e+00  0.0000000000000000e+00  0.0000000000000000e+00  0.0000000000000000e+00  0.0000000000000000e+00  0.0000000000000000e+00  0.0000000000000000e+00  0.0000000000000000e+00  0.0000000000000000e+00  0.0000000000000000e+00  0.0000000000000000e+00  0.0000000000000000e+00  0.0000000000000000e+00  0.0000000000000000e+00  0.0000000000000000e+00  0.0000000000000000e+00  0.0000000000000000e+00  0.0000000000000000e+00  0.0000000000000000e+00  0.0000000000000000e+00  0.0000000000000000e+00  0.0000000000000000e+00  0.0000000000000000e+00  0.0000000000000000e+00  0.0000000000000000e+00  0.0000000000000000e+00  0.0000000000000000e+00  0.0000000000000000e+00  0.0000000000000000e+00  0.0000000000000000e+00  0.0000000000000000e+00  0.0000000000000000e+00  0.0000000000000000e+00  0.0000000000000000e+00  0.0000000000000000e+00  0.0000000000000000e+00  0.0000000000000000e+00  0.0000000000000000e+00  0.0000000000000000e+00  0.0000000000000000e+00  0.0000000000000000e+00  0.0000000000000000e+00  0.0000000000000000e+00  0.0000000000000000e+00  0.0000000000000000e+00  0.0000000000000000e+00  0.0000000000000000e+00  0.0000000000000000e+00  0.0000000000000000e+00  0.0000000000000000e+00  0.0000000000000000e+00  0.0000000000000000e+00  0.0000000000000000e+00  0.0000000000000000e+00  0.0000000000000000e+00  0.0000000000000000e+00  0.0000000000000000e+00  0.0000000000000000e+00  0.0000000000000000e+00  0.0000000000000000e+00  0.0000000000000000e+00  0.0000000000000000e+00  0.0000000000000000e+00  0.0000000000000000e+00  0.0000000000000000e+00  0.0000000000000000e+00  0.0000000000000000e+00  0.0000000000000000e+00  0.0000000000000000e+00  0.0000000000000000e+00  0.0000000000000000e+00  0.0000000000000000e+00  0.0000000000000000e+00  0.0000000000000000e+00  0.0000000000000000e+00  0.0000000000000000e+00  0.0000000000000000e+00  0.0000000000000000e+00  0.0000000000000000e+00  0.0000000000000000e+00  0.0000000000000000e+00  0.0000000000000000e+00  0.0000000000000000e+00  0.0000000000000000e+00  0.0000000000000000e+00  0.0000000000000000e+00  0.0000000000000000e+00  0.0000000000000000e+00  0.0000000000000000e+00  0.0000000000000000e+00  0.0000000000000000e+00  0.0000000000000000e+00  0.0000000000000000e+00  0.0000000000000000e+00  0.0000000000000000e+00  0.0000000000000000e+00  0.0000000000000000e+00  0.0000000000000000e+00  0.0000000000000000e+00  0.0000000000000000e+00  0.0000000000000000e+00  0.0000000000000000e+00  0.0000000000000000e+00  0.0000000000000000e+00  0.0000000000000000e+00  0.0000000000000000e+00  0.0000000000000000e+00  0.0000000000000000e+00  0.0000000000000000e+00  0.0000000000000000e+00  0.0000000000000000e+00  0.0000000000000000e+00  0.0000000000000000e+00  0.0000000000000000e+00  0.0000000000000000e+00  0.0000000000000000e+00  0.0000000000000000e+00  0.0000000000000000e+00  0.0000000000000000e+00  0.0000000000000000e+00  0.0000000000000000e+00  0.0000000000000000e+00  0.0000000000000000e+00  0.0000000000000000e+00  0.0000000000000000e+00  0.0000000000000000e+00  0.0000000000000000e+00  0.0000000000000000e+00  0.0000000000000000e+00  0.0000000000000000e+00  0.0000000000000000e+00  0.0000000000000000e+00  0.0000000000000000e+00  0.0000000000000000e+00  0.0000000000000000e+00  0.0000000000000000e+00  0.0000000000000000e+00  0.0000000000000000e+00  0.0000000000000000e+00  0.0000000000000000e+00  0.0000000000000000e+00  0.0000000000000000e+00  0.0000000000000000e+00  0.0000000000000000e+00  0.0000000000000000e+00  0.0000000000000000e+00  0.0000000000000000e+00  0.0000000000000000e+00  0.0000000000000000e+00  0.0000000000000000e+00  0.0000000000000000e+00  0.0000000000000000e+00  0.0000000000000000e+00  0.0000000000000000e+00  0.0000000000000000e+00  0.0000000000000000e+00  0.0000000000000000e+00  0.0000000000000000e+00  0.0000000000000000e+00  0.0000000000000000e+00  0.0000000000000000e+00  0.0000000000000000e+00  0.0000000000000000e+00  0.0000000000000000e+00  0.0000000000000000e+00  0.0000000000000000e+00  0.0000000000000000e+00  0.0000000000000000e+00  0.0000000000000000e+00  0.0000000000000000e+00  0.0000000000000000e+00  0.0000000000000000e+00  0.0000000000000000e+00  0.0000000000000000e+00  0.0000000000000000e+00  0.0000000000000000e+00  0.0000000000000000e+00  0.0000000000000000e+00  0.0000000000000000e+00  0.0000000000000000e+00  0.0000000000000000e+00  0.0000000000000000e+00  0.0000000000000000e+00  0.0000000000000000e+00  0.0000000000000000e+00  0.0000000000000000e+00  0.0000000000000000e+00  0.0000000000000000e+00  0.0000000000000000e+00  0.0000000000000000e+00  0.0000000000000000e+00  0.0000000000000000e+00  0.0000000000000000e+00  0.0000000000000000e+00  0.0000000000000000e+00  0.0000000000000000e+00  0.0000000000000000e+00  0.0000000000000000e+00  0.0000000000000000e+00  0.0000000000000000e+00  0.0000000000000000e+00  0.0000000000000000e+00  0.0000000000000000e+00  0.0000000000000000e+00  0.0000000000000000e+00  0.0000000000000000e+00  0.0000000000000000e+00  0.0000000000000000e+00  0.0000000000000000e+00  0.0000000000000000e+00  0.0000000000000000e+00  0.0000000000000000e+00  0.0000000000000000e+00  0.0000000000000000e+00  0.0000000000000000e+00  0.0000000000000000e+00  0.0000000000000000e+00  0.0000000000000000e+00  0.0000000000000000e+00  0.0000000000000000e+00  0.0000000000000000e+00  0.0000000000000000e+00  0.0000000000000000e+00  0.0000000000000000e+00  0.0000000000000000e+00  0.0000000000000000e+00  0.0000000000000000e+00  0.0000000000000000e+00  0.0000000000000000e+00  0.0000000000000000e+00  0.0000000000000000e+00  0.0000000000000000e+00  0.0000000000000000e+00  0.0000000000000000e+00  0.0000000000000000e+00  0.0000000000000000e+00  0.0000000000000000e+00  0.0000000000000000e+00  0.0000000000000000e+00  0.0000000000000000e+00  0.0000000000000000e+00  0.0000000000000000e+00  0.0000000000000000e+00  0.0000000000000000e+00  0.0000000000000000e+00  0.0000000000000000e+00  0.0000000000000000e+00  0.0000000000000000e+00  0.0000000000000000e+00  0.0000000000000000e+00  0.0000000000000000e+00  0.0000000000000000e+00  0.0000000000000000e+00  0.0000000000000000e+00  0.0000000000000000e+00  0.0000000000000000e+00  0.0000000000000000e+00  0.0000000000000000e+00  0.0000000000000000e+00  0.0000000000000000e+00  0.0000000000000000e+00  0.0000000000000000e+00  0.0000000000000000e+00  0.0000000000000000e+00  0.0000000000000000e+00  0.0000000000000000e+00  0.0000000000000000e+00  0.0000000000000000e+00  0.0000000000000000e+00  0.0000000000000000e+00  0.0000000000000000e+00  0.0000000000000000e+00  0.0000000000000000e+00  0.0000000000000000e+00  0.0000000000000000e+00  0.0000000000000000e+00  0.0000000000000000e+00  0.0000000000000000e+00  0.0000000000000000e+00  0.0000000000000000e+00  0.0000000000000000e+00  0.0000000000000000e+00  0.0000000000000000e+00  0.0000000000000000e+00  0.0000000000000000e+00  0.0000000000000000e+00  0.0000000000000000e+00  0.0000000000000000e+00  0.0000000000000000e+00  0.0000000000000000e+00  0.0000000000000000e+00  0.0000000000000000e+00  0.0000000000000000e+00  0.0000000000000000e+00  0.0000000000000000e+00  0.0000000000000000e+00  0.0000000000000000e+00  0.0000000000000000e+00  0.0000000000000000e+00  0.0000000000000000e+00  0.0000000000000000e+00  0.0000000000000000e+00  0.0000000000000000e+00  0.0000000000000000e+00  0.0000000000000000e+00  0.0000000000000000e+00  0.0000000000000000e+00  0.0000000000000000e+00  0.0000000000000000e+00  0.0000000000000000e+00  0.0000000000000000e+00  0.0000000000000000e+00  0.0000000000000000e+00  0.0000000000000000e+00  0.0000000000000000e+00  0.0000000000000000e+00  0.0000000000000000e+00  0.0000000000000000e+00  0.0000000000000000e+00  0.0000000000000000e+00  0.0000000000000000e+00  0.0000000000000000e+00  0.0000000000000000e+00  0.0000000000000000e+00  0.0000000000000000e+00  0.0000000000000000e+00  0.0000000000000000e+00  0.0000000000000000e+00  0.0000000000000000e+00  0.0000000000000000e+00  0.0000000000000000e+00  0.0000000000000000e+00  0.0000000000000000e+00  0.0000000000000000e+00  0.0000000000000000e+00  0.0000000000000000e+00  0.0000000000000000e+00  0.0000000000000000e+00  0.0000000000000000e+00  0.0000000000000000e+00  0.0000000000000000e+00  0.0000000000000000e+00  0.0000000000000000e+00  0.0000000000000000e+00  0.0000000000000000e+00  0.0000000000000000e+00  0.0000000000000000e+00  0.0000000000000000e+00  0.0000000000000000e+00  0.0000000000000000e+00  0.0000000000000000e+00  0.0000000000000000e+00  0.0000000000000000e+00  0.0000000000000000e+00  0.0000000000000000e+00  0.0000000000000000e+00  0.0000000000000000e+00  0.0000000000000000e+00  0.0000000000000000e+00  0.0000000000000000e+00  0.0000000000000000e+00  0.0000000000000000e+00  0.0000000000000000e+00  0.0000000000000000e+00  0.0000000000000000e+00  0.0000000000000000e+00  0.0000000000000000e+00  0.0000000000000000e+00  0.0000000000000000e+00  0.0000000000000000e+00  0.0000000000000000e+00  0.0000000000000000e+00  0.0000000000000000e+00  0.0000000000000000e+00  0.0000000000000000e+00  0.0000000000000000e+00  0.0000000000000000e+00  0.0000000000000000e+00  0.0000000000000000e+00  0.0000000000000000e+00  0.0000000000000000e+00  0.0000000000000000e+00  0.0000000000000000e+00  0.0000000000000000e+00  0.0000000000000000e+00  0.0000000000000000e+00  0.0000000000000000e+00  0.0000000000000000e+00  0.0000000000000000e+00  0.0000000000000000e+00  0.0000000000000000e+00  0.0000000000000000e+00  0.0000000000000000e+00  0.0000000000000000e+00  0.0000000000000000e+00  0.0000000000000000e+00  0.0000000000000000e+00  0.0000000000000000e+00  0.0000000000000000e+00  0.0000000000000000e+00  0.0000000000000000e+00  0.0000000000000000e+00  0.0000000000000000e+00  0.0000000000000000e+00  0.0000000000000000e+00  0.0000000000000000e+00  0.0000000000000000e+00  0.0000000000000000e+00  0.0000000000000000e+00  0.0000000000000000e+00  0.0000000000000000e+00  0.0000000000000000e+00  0.0000000000000000e+00  0.0000000000000000e+00  0.0000000000000000e+00  0.0000000000000000e+00  0.0000000000000000e+00  0.0000000000000000e+00  0.0000000000000000e+00  0.0000000000000000e+00  0.0000000000000000e+00  0.0000000000000000e+00  0.0000000000000000e+00  0.0000000000000000e+00  0.0000000000000000e+00  0.0000000000000000e+00  0.0000000000000000e+00  0.0000000000000000e+00  0.0000000000000000e+00  0.0000000000000000e+00  0.0000000000000000e+00  0.0000000000000000e+00  0.0000000000000000e+00  0.0000000000000000e+00  0.0000000000000000e+00  0.0000000000000000e+00  0.0000000000000000e+00  0.0000000000000000e+00  0.0000000000000000e+00  0.0000000000000000e+00  0.0000000000000000e+00  0.0000000000000000e+00  0.0000000000000000e+00  0.0000000000000000e+00  0.0000000000000000e+00  0.0000000000000000e+00  0.0000000000000000e+00  0.0000000000000000e+00  0.0000000000000000e+00  0.0000000000000000e+00  0.0000000000000000e+00  0.0000000000000000e+00  0.0000000000000000e+00  0.0000000000000000e+00  0.0000000000000000e+00  0.0000000000000000e+00  0.0000000000000000e+00  0.0000000000000000e+00  0.0000000000000000e+00  0.0000000000000000e+00  0.0000000000000000e+00  0.0000000000000000e+00  0.0000000000000000e+00  0.0000000000000000e+00  0.0000000000000000e+00  0.0000000000000000e+00  0.0000000000000000e+00  0.0000000000000000e+00  0.0000000000000000e+00  0.0000000000000000e+00  0.0000000000000000e+00  0.0000000000000000e+00  0.0000000000000000e+00  0.0000000000000000e+00  0.0000000000000000e+00  0.0000000000000000e+00  0.0000000000000000e+00  0.0000000000000000e+00  0.0000000000000000e+00  0.0000000000000000e+00  0.0000000000000000e+00  0.0000000000000000e+00  0.0000000000000000e+00  0.0000000000000000e+00  0.0000000000000000e+00  0.0000000000000000e+00  0.0000000000000000e+00  0.0000000000000000e+00  0.0000000000000000e+00  0.0000000000000000e+00  0.0000000000000000e+00  0.0000000000000000e+00  0.0000000000000000e+00  0.0000000000000000e+00  0.0000000000000000e+00  0.0000000000000000e+00  0.0000000000000000e+00  0.0000000000000000e+00  0.0000000000000000e+00  0.0000000000000000e+00  0.0000000000000000e+00  0.0000000000000000e+00  0.0000000000000000e+00  0.0000000000000000e+00  0.0000000000000000e+00  0.0000000000000000e+00  0.0000000000000000e+00  0.0000000000000000e+00  0.0000000000000000e+00  0.0000000000000000e+00  0.0000000000000000e+00  0.0000000000000000e+00  0.0000000000000000e+00  0